LAMMPS data file via write_data, version 2 Jul 2021, timestep = 50000

27 atoms
1 atom type
#31104 angles # verify angle 
#2 angle types

-67.50375 67.50375 xlo xhi
-22.50125 22.50125 ylo yhi
-22.50125 22.50125 zlo zhi
0 0 0 xy xz yz

Masses

1 12.000


Pair Coeffs # lj/cut/coul/long

1 0.190866 3.10782
2 1.64685e-06 3.34478

Angle Coeffs # harmonic

1 17.8827 142.71
2 17.2312 109.47

Atoms # full

1 0 1 -1.05 -63.73040117913416 -22.160027360064454 -16.49728459292992 0 0 0
2 0 1 -1.05 -63.74354765050359 -22.2010883954007 -12.850359104939121 0 0 0
3 0 1 -1.05 -63.797537895630484 -22.14289023219149 -1.441511985900057 0 0 0
7 0 1 -1.05 -61.48035186949483 -22.10231770167647 -18.815062008881792 0 0 0
8 0 1 -1.05 -57.89734521403899 -22.19191021926712 -10.525713616672094 0 0 0
9 0 1 -1.05 -58.074330380415034 -22.11719321698507 -18.695283225303232 0 0 0
10 0 1 -1.05 -55.55193118674144 -22.181021646920364 -12.85930904401878 0 0 0
23 0 1 -1.05 -61.55982080327282 -22.22591299901349 -10.538273395715652 0 0 0
24 0 1 -1.05 -57.88678453935046 -22.06194819787797 -3.784914244215532 0 0 0
31 0 1 -1.05 -61.467655346810005 -22.02515302110325 -3.8478737816389277 0 0 0
66 0 1 -1.05 -55.59757093691091 -22.158592608264428 -16.429843299054696 0 0 0
67 0 1 -1.05 -55.563226290518266 -22.21499450983059 -1.3781912819196371 0 0 0
73 0 1 -1.05 -67.25179529958658 -18.778827325766855 -16.50948783319258 0 0 0
74 0 1 -1.05 -67.2027489064621 -18.79003573154539 -12.964755002177924 0 0 0
75 0 1 -1.05 -67.19571384478046 -18.780380932738996 -1.4280442172867183 0 0 0
79 0 1 -1.05 -67.22025925388277 -10.651909477957986 -12.796002472034985 0 0 0
80 0 1 -1.05 -67.24371886225813 -10.59248234881841 -16.352442917420124 0 0 0
81 0 1 -1.05 -67.18667569821453 -12.88893014788651 -10.58738183051851 0 0 0
82 0 1 -1.05 -67.14706018965241 -13.109367842679994 -18.889094138049515 0 0 0
83 0 1 -1.05 -67.20124511971544 -16.31508435246321 -10.487450485052614 0 0 0
84 0 1 -1.05 -67.12048898252729 -16.483232253866753 -18.74985311391528 0 0 0
86 0 1 -1.05 -67.24335229865656 -10.530997129807393 -1.5387559325574678 0 0 0
88 0 1 -1.05 -67.2090270473721 -13.054450770863955 -3.7342245425014724 0 0 0
90 0 1 -1.05 -67.05240969862703 -16.316421637197944 -3.7833049601403985 0 0 0
101 0 1 -1.05 -67.1856918589453 -1.4196761572776957 -10.417509026664638 0 0 0
102 0 1 -1.05 -67.08935266217965 -1.5491032433991947 -18.67171950451289 0 0 0
103 0 1 -1.05 -67.2335948627348 -3.866085081373356 -16.48004572773669 0 0 0
104 0 1 -1.05 -67.23778908325899 -3.841860607202772 -12.812094148053593 0 0 0
110 0 1 -1.05 -67.11789963113915 -1.4751639225768614 -3.7289368516549892 0 0 0
111 0 1 -1.05 -67.15504641552293 -3.7835890253431828 -1.4373859770004813 0 0 0
145 0 2 2.1 -65.65638907405064 -16.307516584150022 -10.887461374858953 0 0 0
146 0 2 2.1 -65.7103121192358 -10.933549857884044 -16.237209641622457 0 0 0
149 0 2 2.1 -65.6587558465995 -10.936018028842346 -13.13002659415547 0 0 0
150 0 2 2.1 -65.66673399966679 -18.456855974555477 -13.101228325143481 0 0 0
151 0 2 2.1 -65.5083116168555 -16.160908219567595 -3.3312182367684358 0 0 0
154 0 2 2.1 -65.69730571341222 -10.889508458793372 -1.206944464225554 0 0 0
157 0 2 2.1 -65.65223284162096 -13.112144211444713 -3.402914900157757 0 0 0
165 0 2 2.1 -65.58914158528472 -1.2046074584882653 -18.25938353533106 0 0 0
168 0 2 2.1 -65.72455372224258 -3.4579443703038457 -16.2124244084245 0 0 0
169 0 2 2.1 -65.68923141467982 -3.444936296966432 -13.05136793759577 0 0 0
194 0 2 2.1 -65.6599772537956 -18.479617078058116 -1.1629503803246592 0 0 0
195 0 2 2.1 -65.60142009350248 -16.277745131194735 -18.365324503358618 0 0 0
196 0 1 -1.05 -65.39372494816591 -14.714876353246119 -11.319962334069151 0 0 0
197 0 1 -1.05 -65.45194208600942 -18.086237345890797 -14.655951997451334 0 0 0
198 0 2 2.1 -65.69596427040557 -18.45492536825947 -16.181557690154843 0 0 0
199 0 1 -1.05 -65.27008682565695 -12.184186777789062 -12.23280759441876 0 0 0
200 0 2 2.1 -65.59480004287344 -13.131580607160707 -11.025767701076466 0 0 0
201 0 2 2.1 -65.54323181203749 -13.158244852349934 -18.383971669518058 0 0 0
202 0 1 -1.05 -65.34785075639162 -14.632022543982131 -2.9216219998954465 0 0 0
209 0 2 2.1 -65.63694710895099 -1.2527894690294623 -10.904138412333692 0 0 0
210 0 1 -1.05 -65.5715204005168 -3.1478013174933004 -14.63777102635724 0 0 0
211 0 2 2.1 -65.58757703816823 -1.2589888186500175 -3.336447948893671 0 0 0
215 0 2 2.1 -65.54791768982432 -3.4449884655596605 -1.152059007724521 0 0 0
238 0 1 -1.05 -65.35704409982608 -14.73478062665926 -18.008594033234875 0 0 0
239 0 1 -1.05 -65.33320853036595 -12.054264119008684 -2.2363620238465707 0 0 0
240 0 1 -1.05 -65.42850255268272 -2.1424661234392097 -12.16837479211361 0 0 0
245 0 1 -1.05 -65.34158825767307 -17.27391051892612 -12.103459992236964 0 0 0
246 0 1 -1.05 -65.51543080317248 -11.223968850063994 -14.66133411715607 0 0 0
270 0 1 -1.05 -65.28567836261969 -17.19102606639578 -17.09168317222769 0 0 0
271 0 1 -1.05 -65.33174888766516 -12.163405530883868 -17.146937764040796 0 0 0
272 0 1 -1.05 -65.32264178872369 -17.119541663926277 -2.049936883330968 0 0 0
276 0 1 -1.05 -65.31422737965497 -2.103212218518749 -17.00391740801214 0 0 0
278 0 1 -1.05 -65.10107410577936 -2.2399104272725125 -2.140825515290892 0 0 0
292 0 1 -1.05 -64.73693573391468 -19.73410367244312 -12.767700527173558 0 0 0
295 0 1 -1.05 -64.77787239955384 -19.74620682582658 -16.46821983638463 0 0 0
296 0 1 -1.05 -64.71814547216107 -19.707064541959017 -1.5821581989429276 0 0 0
297 0 1 -1.05 -64.72274489839084 -12.801046882536427 -9.739957828592164 0 0 0
298 0 1 -1.05 -64.75507861687714 -9.549365991603052 -12.93280781211872 0 0 0
299 0 1 -1.05 -64.574071113831 -12.821733574479522 -19.616653997528005 0 0 0
300 0 1 -1.05 -64.84045937268233 -9.609877628831752 -16.59788255107587 0 0 0
301 0 1 -1.05 -64.75610876998164 -16.653046121277303 -9.618229586372555 0 0 0
302 0 1 -1.05 -64.71733613461733 -12.829661731743398 -4.628939778384588 0 0 0
303 0 1 -1.05 -64.79359626002068 -9.596782205665491 -1.5231611495511714 0 0 0
304 0 1 -1.05 -64.54441114617904 -16.52005492246775 -4.536646397728198 0 0 0
313 0 1 -1.05 -64.697440517656 -4.608473209856577 -16.59430706452263 0 0 0
314 0 1 -1.05 -64.72547405781214 -1.7188877484087506 -9.673100430372957 0 0 0
315 0 1 -1.05 -64.68674713846112 -4.626647344934796 -12.687874661879043 0 0 0
320 0 1 -1.05 -64.66874097127666 -1.5867844955546175 -4.629335344962794 0 0 0
321 0 1 -1.05 -64.66064396731619 -4.73816524464398 -1.362588322014382 0 0 0
348 0 1 -1.05 -64.58687267461676 -16.61047899167767 -19.56473852838321 0 0 0
353 0 1 -1.05 -64.62362707408737 -1.5220470513693982 -19.53393535934979 0 0 0
361 0 1 -1.05 -63.74865136708106 -12.874987383176567 -7.159278303582882 0 0 0
362 0 1 -1.05 -63.8671385403976 -16.425477836850405 -7.1527441996790415 0 0 0
363 0 2 2.1 -63.437292994426514 -20.596582373265456 -1.2840932895103023 0 0 0
365 0 2 2.1 -63.46488111296411 -20.69083560947207 -16.20783811940305 0 0 0
366 0 2 2.1 -63.400263399063455 -20.627609887446326 -13.046197808607827 0 0 0
368 0 1 -1.05 -63.816759352221425 -12.935422173320513 -22.090487898999655 0 0 0
369 0 1 -1.05 -63.8955604005318 -16.30574034443052 -22.140683059306983 0 0 0
372 0 2 2.1 -63.449397935220155 -5.585059746259972 -13.08175275590826 0 0 0
374 0 1 -1.05 -64.00108568967642 -1.3513661253480755 -22.16872438037542 0 0 0
375 0 1 -1.05 -63.86027011630151 -7.154374069580264 -16.558885172949008 0 0 0
376 0 1 -1.05 -63.766536157867385 -7.105886245953281 -12.887954127392897 0 0 0
378 0 1 -1.05 -63.87507209350487 -1.3849974320139395 -7.125804598406166 0 0 0
398 0 2 2.1 -63.47926377135933 -13.15440265060505 -8.771035582324163 0 0 0
399 0 2 2.1 -63.50302067563161 -16.300530377742913 -8.697365574923428 0 0 0
400 0 2 2.1 -63.450759556269226 -8.722435367804277 -13.165240312237023 0 0 0
401 0 2 2.1 -63.49999816969119 -8.679592129229608 -16.291803133821606 0 0 0
403 0 2 2.1 -63.448796716862404 -13.084831640334228 -5.57914594718012 0 0 0
404 0 2 2.1 -63.38596482747442 -16.234749884983472 -5.644728306221349 0 0 0
411 0 2 2.1 -63.324661172372565 -5.601605488613242 -1.087120404794991 0 0 0
416 0 1 -1.05 -63.63213024402466 -7.1988183797141225 -1.2411473232115142 0 0 0
439 0 2 2.1 -63.45402653888574 -8.783298785620067 -1.219405004782729 0 0 0
442 0 2 2.1 -63.333144878944545 -13.168409031023577 -20.56614001669874 0 0 0
443 0 2 2.1 -63.43455840440212 -16.28092293868152 -20.607746739099166 0 0 0
447 0 2 2.1 -63.5189255698814 -5.611419393490582 -16.283978652458117 0 0 0
449 0 2 2.1 -63.49639343219127 -1.185186437408209 -20.6049939527382 0 0 0
452 0 2 2.1 -63.48905157163085 -1.2955247073309906 -5.59258413872519 0 0 0
461 0 2 2.1 -63.5457109371783 -1.3220659270976647 -8.711559438522459 0 0 0
463 0 1 -1.05 -63.153693432000495 -14.705148394730859 -8.965063046580099 0 0 0
470 0 1 -1.05 -63.085191396167716 -20.404312285545355 -14.641188287515536 0 0 0
473 0 1 -1.05 -62.95832000154697 -14.754641799543384 -20.315540355756873 0 0 0
474 0 1 -1.05 -63.10290297022166 -8.92298718248272 -14.74941972268469 0 0 0
477 0 1 -1.05 -63.19891748129606 -5.430767353250015 -14.69200305713323 0 0 0
497 0 1 -1.05 -63.012106580617555 -14.620910562435665 -5.486607890018725 0 0 0
501 0 1 -1.05 -62.19519324780586 -20.22409105964519 -2.2327114653052007 0 0 0
503 0 1 -1.05 -62.238834403169875 -20.235755116151353 -17.156306551826557 0 0 0
504 0 1 -1.05 -62.153337259521756 -20.29085925015177 -12.102508219333885 0 0 0
509 0 1 -1.05 -62.22395380147487 -17.25140564079431 -20.508376726292873 0 0 0
510 0 1 -1.05 -62.2882007332522 -17.226435255258085 -9.10116452987047 0 0 0
511 0 1 -1.05 -62.12417967635724 -12.215091055569864 -20.222126027025173 0 0 0
512 0 1 -1.05 -62.264436322818305 -12.172624335063825 -9.156878709596832 0 0 0
513 0 1 -1.05 -62.25632353806423 -9.208214564703578 -12.251947465661862 0 0 0
514 0 1 -1.05 -62.100810791537135 -17.093605173305328 -5.323708767767407 0 0 0
516 0 1 -1.05 -62.246309718917296 -9.105691082386976 -2.2410737308810873 0 0 0
525 0 1 -1.05 -62.228915863467755 -5.317919251820239 -17.186625235243827 0 0 0
526 0 1 -1.05 -62.25311952956903 -2.164728884252508 -20.366195012363978 0 0 0
527 0 1 -1.05 -62.149284980361685 -5.207090154835566 -12.208144795204959 0 0 0
528 0 1 -1.05 -62.23048904897363 -2.185022146290745 -9.053442884719503 0 0 0
532 0 1 -1.05 -62.234524668715395 -5.237885971006975 -2.2152145547158533 0 0 0
533 0 1 -1.05 -62.19919641540989 -2.153070434893543 -5.3496552204037755 0 0 0
568 0 1 -1.05 -62.34501014926336 -9.087649278409236 -17.293340857508284 0 0 0
569 0 1 -1.05 -62.23064035609772 -12.150230075937147 -5.203686163749982 0 0 0
572 0 2 2.1 -61.293873978293234 -20.577935910754785 -18.43324075031376 0 0 0
573 0 2 2.1 -61.28439914036454 -20.610389383401124 -10.844522375066823 0 0 0
574 0 2 2.1 -61.25148966442013 -20.481514641738762 -3.4858119606333524 0 0 0
576 0 2 2.1 -58.165817250105434 -20.621982910896563 -10.860073775246402 0 0 0
579 0 2 2.1 -56.007520063520055 -20.618229191337072 -13.097765707702088 0 0 0
580 0 2 2.1 -55.8554652344543 -20.65076018790945 -1.2563013849971973 0 0 0
614 0 2 2.1 -58.24547409827383 -20.54098813143009 -18.30811815777793 0 0 0
615 0 2 2.1 -56.02274422255782 -20.570161175164916 -16.163349782388845 0 0 0
625 0 2 2.1 -58.10273157740389 -20.48744269664739 -3.4256377242456644 0 0 0
636 0 1 -1.05 -59.78251943505584 -20.372304557821128 -18.038168295925047 0 0 0
637 0 1 -1.05 -59.721508558816 -20.473209311163554 -11.191162576091816 0 0 0
638 0 1 -1.05 -59.67469968795634 -20.351274777622567 -3.084344162574304 0 0 0
642 0 1 -1.05 -56.35864850092628 -20.485863835778343 -14.658698680550213 0 0 0
668 0 1 -1.05 -57.25829298091183 -20.314992462400195 -12.141526187947681 0 0 0
677 0 1 -1.05 -61.562510604461366 -19.608443634623022 -4.698377284508023 0 0 0
678 0 1 -1.05 -57.10588516281985 -20.20674106673593 -2.2362975623986934 0 0 0
687 0 1 -1.05 -57.345618589832455 -20.25167200954935 -17.023726466168675 0 0 0
702 0 1 -1.05 -57.82663077550226 -19.550193759063237 -19.55736817437244 0 0 0
720 0 1 -1.05 -61.67126432681612 -19.675234299412065 -19.64622910620719 0 0 0
721 0 1 -1.05 -61.626388609891094 -4.697423894451518 -19.689695261009337 0 0 0
728 0 1 -1.05 -61.62624257336044 -19.694842844292985 -9.627946250188067 0 0 0
732 0 1 -1.05 -61.47585985514803 -18.986469316494183 -22.255684290082932 0 0 0
733 0 1 -1.05 -61.35947627410093 -18.722517107536827 -7.165370054559242 0 0 0
735 0 2 2.1 -61.36574203683721 -18.534408749722235 -20.679510659928912 0 0 0
736 0 2 2.1 -61.25925036235334 -18.414122397758273 -8.763007610428614 0 0 0
737 0 1 -1.05 -61.6209282349785 -9.633487152135888 -9.692868847194077 0 0 0
738 0 2 2.1 -61.31970746551028 -8.815279621352394 -11.03925948842272 0 0 0
739 0 1 -1.05 -61.51488190648716 -9.737357356533595 -19.678314380117413 0 0 0
740 0 2 2.1 -61.23842600016007 -8.755685830325834 -18.392299218904085 0 0 0
741 0 2 2.1 -61.3176784631361 -10.901397643887003 -8.777633031334751 0 0 0
742 0 2 2.1 -61.22150380540123 -10.989010806580591 -20.58824223740831 0 0 0
743 0 1 -1.05 -61.28478731334022 -10.578523788501549 -22.14267812996126 0 0 0
744 0 2 2.1 -61.16586178023241 -18.37244907091008 -5.643994434363776 0 0 0
748 0 1 -1.05 -61.565593547119086 -9.60333772439323 -4.732553287433028 0 0 0
749 0 2 2.1 -61.30696088766292 -8.698365370268695 -3.4311968855005617 0 0 0
751 0 2 2.1 -61.221165684968696 -10.898842547853716 -5.6190079311791585 0 0 0
752 0 1 -1.05 -61.474965247967035 -10.59865310762634 -7.201248901210054 0 0 0
762 0 2 2.1 -61.27863247615498 -3.4767755785936245 -20.594201410477304 0 0 0
763 0 2 2.1 -61.255121824204096 -3.45030284747747 -8.74294632077854 0 0 0
765 0 1 -1.05 -61.54769254320958 -7.174358976889675 -10.727192934254765 0 0 0
768 0 1 -1.05 -61.42146393589939 -7.154803921923275 -18.844182810107554 0 0 0
770 0 2 2.1 -61.266436111718455 -5.582097315953728 -18.46491629373786 0 0 0
771 0 2 2.1 -61.16423288056595 -5.644712349580725 -10.998383182047153 0 0 0
772 0 1 -1.05 -61.45540995693526 -4.734746996268118 -9.720020430734667 0 0 0
775 0 1 -1.05 -61.425799255808094 -3.8344562968859535 -22.13805614728497 0 0 0
777 0 2 2.1 -61.311969659130305 -3.5120346348056835 -5.62796430322447 0 0 0
782 0 1 -1.05 -61.498959684850576 -7.131661697903569 -3.722378170685971 0 0 0
784 0 2 2.1 -61.26260199449409 -5.58791563129089 -3.464618612929179 0 0 0
786 0 1 -1.05 -61.734868038877686 -4.644616712658923 -4.6547226580154195 0 0 0
790 0 1 -1.05 -61.43897845485721 -3.8388813880010133 -7.214639607907367 0 0 0
850 0 1 -1.05 -59.763902559742874 -18.137106974727082 -20.546689704819006 0 0 0
851 0 1 -1.05 -59.71001172263456 -17.997626782396264 -9.05830924172338 0 0 0
852 0 1 -1.05 -59.709711522533496 -8.919476895116004 -17.97696712730151 0 0 0
853 0 1 -1.05 -59.71262598522016 -8.905410441067852 -11.228897078844849 0 0 0
854 0 1 -1.05 -59.73694482424112 -11.216710494993821 -8.897977171908357 0 0 0
855 0 1 -1.05 -59.664315136400425 -11.365588079299586 -20.420869607966726 0 0 0
856 0 1 -1.05 -59.66833329621708 -17.987136009531046 -5.394411948382142 0 0 0
858 0 1 -1.05 -59.76845841391004 -8.915773513300506 -3.137565300959807 0 0 0
861 0 1 -1.05 -59.63584259345918 -11.283790741468115 -5.393253569181589 0 0 0
868 0 1 -1.05 -59.70387332229645 -3.1700607759780333 -20.404408140865897 0 0 0
869 0 1 -1.05 -59.706605169502865 -3.086963405133389 -8.937007810778878 0 0 0
870 0 1 -1.05 -59.72629177802285 -5.286752983247204 -18.076536602924516 0 0 0
871 0 1 -1.05 -59.62854030449179 -5.560495931623393 -11.479965322491234 0 0 0
876 0 1 -1.05 -59.69786808408067 -3.2097157027546785 -5.480433450622332 0 0 0
878 0 1 -1.05 -59.770391614751716 -5.363766083277973 -3.1355624922222667 0 0 0
916 0 1 -1.05 -57.825260983495404 -18.79224978677045 -22.113020123637728 0 0 0
917 0 1 -1.05 -58.01483086519646 -18.618195039325627 -7.262155674992027 0 0 0
918 0 1 -1.05 -57.811238421902665 -9.653151136215632 -9.693074825699524 0 0 0
919 0 2 2.1 -58.15185400704788 -8.751866144452984 -10.961738289548684 0 0 0
920 0 2 2.1 -58.19615172559068 -8.677421044508883 -18.500535431675154 0 0 0
921 0 2 2.1 -58.15493480065213 -18.35713234432228 -20.561827080172634 0 0 0
922 0 2 2.1 -58.15911182995487 -18.330572435270163 -8.830422864298084 0 0 0
923 0 1 -1.05 -57.86638642360421 -10.561173586155165 -22.13913472082698 0 0 0
924 0 2 2.1 -58.184365368405906 -10.925086056852722 -8.72979933201524 0 0 0
925 0 2 2.1 -58.100594417055035 -10.915674091625272 -20.576139614178533 0 0 0
927 0 2 2.1 -58.165527325291265 -8.660950507206678 -3.4423563662441126 0 0 0
928 0 2 2.1 -58.088229330356754 -18.37114292291577 -5.612207756328658 0 0 0
931 0 2 2.1 -58.05532463364439 -10.888959272347394 -5.540178524799508 0 0 0
939 0 1 -1.05 -58.0742365605785 -7.077559740297186 -18.927170193319707 0 0 0
941 0 2 2.1 -58.15054780918741 -3.432028384887964 -20.687666826852393 0 0 0
942 0 2 2.1 -58.182299561872945 -3.4917839842642735 -8.749536721199421 0 0 0
946 0 2 2.1 -58.18738878192705 -5.57346096391149 -18.46150050987191 0 0 0
947 0 2 2.1 -58.065564988496156 -5.585936278803466 -11.029080332680602 0 0 0
951 0 1 -1.05 -58.071554489986426 -7.153723471278848 -3.8720241935327806 0 0 0
953 0 2 2.1 -58.12331779249101 -3.482950434481854 -5.648009577859121 0 0 0
958 0 1 -1.05 -58.00721717049108 -3.8335587755420057 -7.2142676420737235 0 0 0
959 0 2 2.1 -58.19713728037136 -5.62135287904573 -3.441327642737928 0 0 0
996 0 1 -1.05 -57.84922300957451 -19.62983908188938 -9.671248335941582 0 0 0
998 0 1 -1.05 -57.76484391249653 -19.564453466985366 -4.687507822627314 0 0 0
1002 0 1 -1.05 -54.74882426216297 -19.65521415570507 -12.749048838505619 0 0 0
1003 0 1 -1.05 -54.83590003684329 -19.581820060931747 -16.556990630820046 0 0 0
1005 0 1 -1.05 -54.53174209418271 -19.751430516831515 -1.601252207787816 0 0 0
1041 0 1 -1.05 -52.23999654784435 -18.890682480162173 -16.398720607021833 0 0 0
1042 0 1 -1.05 -52.18841523449018 -18.825983090230377 -12.90466458258278 0 0 0
1045 0 1 -1.05 -52.1073608539646 -18.821922996759508 -1.429281335631078 0 0 0
1070 0 1 -1.05 -57.85184928487637 -9.63693578212968 -19.659256102817864 0 0 0
1072 0 1 -1.05 -57.77528650501623 -9.630518120535935 -4.628161467727793 0 0 0
1073 0 1 -1.05 -57.86899626963776 -10.545769545154455 -7.130226257306106 0 0 0
1078 0 1 -1.05 -57.85698116934593 -7.153392227389515 -10.641461887850362 0 0 0
1080 0 1 -1.05 -57.898330429638015 -4.6287422254890735 -9.775261907329092 0 0 0
1081 0 1 -1.05 -58.00723587468978 -3.7776109512935037 -22.220548438166787 0 0 0
1082 0 1 -1.05 -57.739863078580285 -4.56146568421218 -19.6352360150248 0 0 0
1085 0 1 -1.05 -57.808450058256405 -4.741762186771929 -4.712806073155729 0 0 0
1218 0 1 -1.05 -52.19314189752296 -1.4482278157816033 -3.7819066358016187 0 0 0
1226 0 1 -1.05 -52.128403772519434 -3.8578524863976043 -1.484199593751704 0 0 0
1259 0 1 -1.05 -54.780825167278614 -12.763451616953962 -9.87127422525708 0 0 0
1260 0 1 -1.05 -55.63414007889781 -12.972641894838706 -22.17054987370012 0 0 0
1261 0 2 2.1 -55.94906540181548 -13.09697360279143 -8.825582465260014 0 0 0
1262 0 1 -1.05 -54.83832396564657 -9.783644244185885 -12.83634426169381 0 0 0
1263 0 2 2.1 -53.85114329503443 -10.937501028800265 -13.21734428623772 0 0 0
1264 0 1 -1.05 -54.61227381876166 -12.698761894710799 -19.706315735640867 0 0 0
1265 0 2 2.1 -55.89106492938205 -13.069034671992956 -20.600651353528086 0 0 0
1266 0 1 -1.05 -54.77300088553093 -9.626617743384895 -16.692130614875936 0 0 0
1267 0 2 2.1 -53.799081143599516 -10.773403736466136 -16.285020152271148 0 0 0
1268 0 1 -1.05 -57.23843271142313 -17.02316911698993 -20.306664516396964 0 0 0
1269 0 1 -1.05 -53.95595863229138 -17.112793920518396 -17.11569274659524 0 0 0
1270 0 1 -1.05 -53.89154571449243 -14.548594596971856 -18.040071818505567 0 0 0
1271 0 2 2.1 -53.723680434360915 -16.124143788966617 -18.36100857649928 0 0 0
1272 0 1 -1.05 -57.24939698428726 -17.123929540157803 -9.250251374011684 0 0 0
1273 0 1 -1.05 -54.04767224976983 -17.242260589493615 -12.166120134067034 0 0 0
1274 0 1 -1.05 -53.834092169801046 -14.692546971824711 -11.288433189630165 0 0 0
1275 0 2 2.1 -53.793297672904856 -16.32268312588767 -10.909602996253485 0 0 0
1276 0 2 2.1 -55.99265037205076 -8.769511160056688 -13.181801706795687 0 0 0
1277 0 2 2.1 -53.73705555680876 -13.127300061087587 -11.009317443092444 0 0 0
1278 0 2 2.1 -55.98738492263234 -8.675016516605126 -16.315079234347937 0 0 0
1279 0 2 2.1 -53.722175092192685 -12.946618745975039 -18.441120665628574 0 0 0
1280 0 1 -1.05 -54.80342582685457 -16.549622279516875 -9.717987445609849 0 0 0
1281 0 1 -1.05 -54.71990885617659 -16.487398970185186 -19.540757219891482 0 0 0
1282 0 1 -1.05 -57.30663698827337 -9.160740839256706 -12.271461515313469 0 0 0
1283 0 1 -1.05 -56.250362542855925 -8.937041153002435 -14.740502064516104 0 0 0
1284 0 1 -1.05 -57.23446064466418 -12.171308003901405 -9.087470314955093 0 0 0
1285 0 1 -1.05 -54.087407720238495 -12.301011018680047 -12.38146060756447 0 0 0
1286 0 1 -1.05 -57.224835633729356 -8.964866554508964 -17.233743968574252 0 0 0
1287 0 1 -1.05 -57.0393124345836 -12.03505547968197 -20.20741116949934 0 0 0
1288 0 1 -1.05 -54.126065927631544 -12.012531246525963 -17.257616012347597 0 0 0
1289 0 1 -1.05 -55.559989309757356 -16.296526534494365 -22.177860433301085 0 0 0
1290 0 2 2.1 -55.933395983328545 -16.12936569132705 -20.601072354726888 0 0 0
1291 0 2 2.1 -53.75549590714252 -18.458826280385313 -16.223424906162276 0 0 0
1292 0 2 2.1 -56.00686095722415 -16.20010227654599 -8.750260994474933 0 0 0
1293 0 2 2.1 -53.774301314686525 -18.498773145697907 -13.123226403484983 0 0 0
1294 0 1 -1.05 -54.0269211169935 -11.205983583372042 -14.78785502947788 0 0 0
1295 0 1 -1.05 -56.3526204027187 -14.633293903788296 -8.92864310128774 0 0 0
1296 0 1 -1.05 -56.316983608301804 -14.59719150184649 -20.35712838012866 0 0 0
1297 0 1 -1.05 -53.956506479884794 -18.120928866531546 -14.654079205308285 0 0 0
1299 0 1 -1.05 -55.51360025022075 -12.911791130515285 -7.251906303185233 0 0 0
1303 0 1 -1.05 -54.63019112889416 -12.80042776217447 -4.729564292994191 0 0 0
1304 0 2 2.1 -55.88050332878766 -13.05786471062803 -5.685702223174236 0 0 0
1305 0 1 -1.05 -54.68276424444795 -9.684650052369623 -1.6007350110331835 0 0 0
1306 0 2 2.1 -53.70199167531233 -10.897380558762173 -1.281698817346136 0 0 0
1307 0 1 -1.05 -57.073831426806585 -17.199280130152275 -5.287058382904821 0 0 0
1308 0 1 -1.05 -54.053519362413354 -17.216837434096384 -2.226970636941278 0 0 0
1309 0 1 -1.05 -53.966488278032195 -14.737481178155459 -3.102098520341258 0 0 0
1310 0 2 2.1 -53.71561881133292 -16.274126073013285 -3.453145177131052 0 0 0
1317 0 2 2.1 -55.899634562768476 -8.716046342625992 -1.213918321434459 0 0 0
1318 0 2 2.1 -53.74520958583027 -13.146650772971151 -3.4588680734279436 0 0 0
1320 0 1 -1.05 -54.63299495815005 -16.536858999926185 -4.712445344186776 0 0 0
1325 0 1 -1.05 -57.215332009568726 -8.976465313482436 -2.164562082815049 0 0 0
1326 0 1 -1.05 -57.080415781928416 -12.131138956148508 -5.282088656234841 0 0 0
1327 0 1 -1.05 -53.998337169067604 -12.064484400084943 -2.2882610237267222 0 0 0
1328 0 1 -1.05 -55.58605284878198 -16.40239941398508 -7.213084152539437 0 0 0
1329 0 2 2.1 -55.89883802744903 -16.17138068506966 -5.608073699344963 0 0 0
1330 0 2 2.1 -53.6555723352896 -18.475761226441584 -1.2081847875702572 0 0 0
1335 0 1 -1.05 -56.27403138114438 -14.617418894490275 -5.477628746670042 0 0 0
1385 0 1 -1.05 -57.316932115982546 -5.423509731001179 -17.112910655001652 0 0 0
1386 0 1 -1.05 -56.312206314883674 -5.402219614581064 -14.715930845779639 0 0 0
1387 0 2 2.1 -56.007170643986846 -5.600065225007057 -16.24926002293949 0 0 0
1388 0 1 -1.05 -57.3623843544806 -2.1004894908285365 -20.359807477388586 0 0 0
1389 0 1 -1.05 -53.95899581783189 -2.1362523965959426 -17.136357790384384 0 0 0
1391 0 2 2.1 -53.75438928245025 -1.1993753718192899 -18.479109106914418 0 0 0
1392 0 1 -1.05 -57.09242694457218 -5.222124008541115 -12.221931969256108 0 0 0
1393 0 2 2.1 -55.9028422605762 -5.653764589193521 -13.205627346075435 0 0 0
1394 0 1 -1.05 -57.213655260871825 -2.242486055940958 -9.011655554291458 0 0 0
1395 0 1 -1.05 -54.10867708379686 -2.1758293784873324 -12.262739258507368 0 0 0
1397 0 2 2.1 -53.82648232278711 -1.2510951264511085 -10.963883157046054 0 0 0
1398 0 1 -1.05 -55.58259955800999 -7.175988118069117 -12.98694212439232 0 0 0
1401 0 1 -1.05 -55.564431355641 -7.148612019872353 -16.38260012611995 0 0 0
1404 0 1 -1.05 -54.62220843077182 -4.72895827934526 -12.845605108505922 0 0 0
1405 0 1 -1.05 -54.7948648480268 -1.7036456870459524 -9.767625989442251 0 0 0
1406 0 1 -1.05 -54.802467093154206 -4.55920005328575 -16.62432181770717 0 0 0
1407 0 1 -1.05 -54.78623591204317 -1.5615689708993692 -19.624557257508314 0 0 0
1415 0 1 -1.05 -55.71067845732673 -1.2438828675805773 -22.155158606387072 0 0 0
1416 0 2 2.1 -56.03952669558244 -1.115368130117833 -20.5783843097035 0 0 0
1417 0 2 2.1 -53.70800819211813 -3.4596126273538452 -16.301223205206554 0 0 0
1418 0 2 2.1 -55.96544310633922 -1.3273574223579594 -8.797081815983384 0 0 0
1419 0 2 2.1 -53.73689267354049 -3.499678983432254 -13.162625112034387 0 0 0
1423 0 1 -1.05 -53.890374318266446 -3.1062148454537173 -14.750614572419234 0 0 0
1433 0 1 -1.05 -57.245869827561876 -5.3008358605531924 -2.155144510909203 0 0 0
1435 0 2 2.1 -55.999575364884144 -5.668447442657708 -1.2500567975027295 0 0 0
1436 0 1 -1.05 -57.134577893127265 -2.2590447206569984 -5.291580131308212 0 0 0
1437 0 1 -1.05 -54.037181093738894 -2.3381718769871505 -2.3147683757066133 0 0 0
1439 0 2 2.1 -53.7549780279506 -1.2258235359056577 -3.432421986848361 0 0 0
1449 0 1 -1.05 -55.616488688661754 -7.1919202592297005 -1.364508311146853 0 0 0
1454 0 1 -1.05 -54.64526472730262 -4.774623032934052 -1.5332466437436025 0 0 0
1455 0 1 -1.05 -54.70974554097374 -1.5787171863057736 -4.690240079310001 0 0 0
1463 0 1 -1.05 -55.59096061260225 -1.4516697369105493 -7.191273961625413 0 0 0
1464 0 2 2.1 -55.89942417631394 -1.2439267633678739 -5.676991928310439 0 0 0
1465 0 2 2.1 -53.7173190845068 -3.5359946493615837 -1.2748072561323518 0 0 0
1670 0 1 -1.05 -52.289910477279186 -10.548061915416332 -13.006483600415049 0 0 0
1674 0 2 2.1 -50.54785982799545 -16.194734062953994 -18.46546165612645 0 0 0
1683 0 1 -1.05 -52.25343930779127 -10.407845642441243 -16.488585986310646 0 0 0
1696 0 2 2.1 -50.69333055781722 -10.899526863079485 -13.135470360335813 0 0 0
1720 0 1 -1.05 -52.20070021138049 -12.83154055628512 -10.705955337890808 0 0 0
2105 0 1 -1.05 -52.19976577334212 -3.826405706061472 -12.883602384150514 0 0 0
1727 0 1 -1.05 -52.214211590225354 -12.894818285084053 -18.799771146361262 0 0 0
1735 0 1 -1.05 -52.21043624286207 -16.49502401143008 -10.535055426786753 0 0 0
1741 0 1 -1.05 -52.18066845727037 -16.32503024310716 -18.839564867299508 0 0 0
1760 0 2 2.1 -50.637288910452135 -13.060947465005711 -10.980860836381522 0 0 0
2097 0 1 -1.05 -52.19347867645158 -3.965187389032323 -16.41009435023015 0 0 0
1791 0 1 -1.05 -52.180414856895474 -10.49555608318207 -1.3240330070768458 0 0 0
1835 0 1 -1.05 -52.14772094386109 -12.98079272375345 -3.830944786766011 0 0 0
1849 0 1 -1.05 -52.100485791833684 -16.50071041730868 -3.7850312358828546 0 0 0
2089 0 1 -1.05 -52.21679004962092 -1.4755207318700485 -18.82171066725511 0 0 0
2081 0 1 -1.05 -52.25392324942283 -1.504711688512085 -10.611778545351687 0 0 0
1707 0 2 2.1 -50.721316384349024 -10.856810664695496 -16.32074383375654 0 0 0
1714 0 2 2.1 -50.60511339495817 -18.482674654221007 -16.23979871664552 0 0 0
97 0 1 -1.05 -67.19154095563307 4.463154008229196 -12.845127726229437 0 0 0
98 0 1 -1.05 -67.23237027128745 4.400311365336815 -16.360087312426113 0 0 0
99 0 1 -1.05 -67.20626132604082 2.0753896925489457 -10.43381877721888 0 0 0
100 0 1 -1.05 -67.2094279450501 2.035990626764079 -18.761909380175783 0 0 0
106 0 1 -1.05 -67.23233751531401 4.492442707567136 -1.2714294424080919 0 0 0
108 0 1 -1.05 -67.21485685878714 2.0799947278587787 -3.727744372877499 0 0 0
119 0 1 -1.05 -67.23920614238298 19.539121521338856 -12.802542536371961 0 0 0
120 0 1 -1.05 -67.16045559733249 19.38190755518589 -16.52556255422327 0 0 0
121 0 1 -1.05 -67.34906796913245 17.02462982039006 -10.474626084553735 0 0 0
122 0 1 -1.05 -67.1590002254942 17.04434086847929 -18.70853684368869 0 0 0
123 0 1 -1.05 -67.24756093523364 13.68731222531401 -10.606710207222656 0 0 0
124 0 1 -1.05 -67.27205021035167 13.49296104696505 -18.641288895483648 0 0 0
125 0 1 -1.05 -67.18417605337542 11.343659030401483 -16.386237028139373 0 0 0
127 0 1 -1.05 -67.20472232236862 19.56373336315071 -1.466128491241946 0 0 0
129 0 1 -1.05 -67.18196595831644 17.043166141750405 -3.680529044102645 0 0 0
131 0 1 -1.05 -67.133305213839 13.651100888509838 -3.825943462251523 0 0 0
141 0 1 -1.05 -67.1701751271923 11.25490457301916 -12.840694127231647 0 0 0
144 0 1 -1.05 -67.1278605996954 11.130668009750778 -1.437669659910064 0 0 0
166 0 2 2.1 -65.61583029141619 4.12291816836559 -13.077290591272837 0 0 0
167 0 2 2.1 -65.67789136124976 4.030798251590511 -16.14574984180651 0 0 0
170 0 2 2.1 -65.65847871586011 1.8850030985777657 -10.89444614028533 0 0 0
171 0 2 2.1 -65.66443441544322 1.900193457124601 -18.400318327370314 0 0 0
179 0 2 2.1 -65.67099179396332 13.656083307403037 -18.379988319246984 0 0 0
180 0 2 2.1 -65.68843229071972 13.86680850929212 -10.881192484240703 0 0 0
181 0 2 2.1 -65.70694211081835 19.167153054859433 -13.02715165204964 0 0 0
182 0 2 2.1 -65.59548184637295 19.037145237026138 -16.266403143911 0 0 0
183 0 2 2.1 -65.5923916276799 11.658777534414362 -16.121199516220415 0 0 0
184 0 2 2.1 -65.58537916346633 11.659734925695311 -13.015422996871209 0 0 0
185 0 2 2.1 -65.77590154055503 16.925162896997776 -10.811741765519173 0 0 0
186 0 2 2.1 -65.64682113855545 16.751973979634833 -18.30877905510983 0 0 0
188 0 2 2.1 -65.53320385468436 11.541844993861808 -1.1854297627025687 0 0 0
190 0 2 2.1 -65.56839134182634 16.85004586472167 -3.360418186514753 0 0 0
208 0 1 -1.05 -65.36818342269402 0.3185599027429049 -11.228436261403024 0 0 0
214 0 2 2.1 -65.6979036262279 4.079642550759306 -1.155368766621912 0 0 0